# vtk DataFile Version 2.0
2D Thermal file
ASCII
DATASET STRUCTURED_GRID
DIMENSIONS 161 81 1
POINTS 13041 float
    0.000000     0.000000 0.0
    0.050000     0.000000 0.0
    0.100000     0.000000 0.0
    0.150000     0.000000 0.0
    0.200000     0.000000 0.0
    0.250000     0.000000 0.0
    0.300000     0.000000 0.0
    0.350000     0.000000 0.0
    0.400000     0.000000 0.0
    0.450000     0.000000 0.0
    0.500000     0.000000 0.0
    0.550000     0.000000 0.0
    0.600000     0.000000 0.0
    0.650000     0.000000 0.0
    0.700000     0.000000 0.0
    0.750000     0.000000 0.0
    0.800000     0.000000 0.0
    0.850000     0.000000 0.0
    0.900000     0.000000 0.0
    0.950000     0.000000 0.0
    1.000000     0.000000 0.0
    1.050000     0.000000 0.0
    1.100000     0.000000 0.0
    1.150000     0.000000 0.0
    1.200000     0.000000 0.0
    1.250000     0.000000 0.0
    1.300000     0.000000 0.0
    1.350000     0.000000 0.0
    1.400000     0.000000 0.0
    1.450000     0.000000 0.0
    1.500000     0.000000 0.0
    1.550000     0.000000 0.0
    1.600000     0.000000 0.0
    1.650000     0.000000 0.0
    1.700000     0.000000 0.0
    1.750000     0.000000 0.0
    1.800000     0.000000 0.0
    1.850000     0.000000 0.0
    1.900000     0.000000 0.0
    1.950000     0.000000 0.0
    2.000000     0.000000 0.0
    2.050000     0.000000 0.0
    2.100000     0.000000 0.0
    2.150000     0.000000 0.0
    2.200000     0.000000 0.0
    2.250000     0.000000 0.0
    2.300000     0.000000 0.0
    2.350000     0.000000 0.0
    2.400000     0.000000 0.0
    2.450000     0.000000 0.0
    2.500000     0.000000 0.0
    2.550000     0.000000 0.0
    2.600000     0.000000 0.0
    2.650000     0.000000 0.0
    2.700000     0.000000 0.0
    2.750000     0.000000 0.0
    2.800000     0.000000 0.0
    2.850000     0.000000 0.0
    2.900000     0.000000 0.0
    2.950000     0.000000 0.0
    3.000000     0.000000 0.0
    3.050000     0.000000 0.0
    3.100000     0.000000 0.0
    3.150000     0.000000 0.0
    3.200000     0.000000 0.0
    3.250000     0.000000 0.0
    3.300000     0.000000 0.0
    3.350000     0.000000 0.0
    3.400000     0.000000 0.0
    3.450000     0.000000 0.0
    3.500000     0.000000 0.0
    3.550000     0.000000 0.0
    3.600000     0.000000 0.0
    3.650000     0.000000 0.0
    3.700000     0.000000 0.0
    3.750000     0.000000 0.0
    3.800000     0.000000 0.0
    3.850000     0.000000 0.0
    3.900000     0.000000 0.0
    3.950000     0.000000 0.0
    4.000000     0.000000 0.0
    4.050000     0.000000 0.0
    4.100000     0.000000 0.0
    4.150000     0.000000 0.0
    4.200000     0.000000 0.0
    4.250000     0.000000 0.0
    4.300000     0.000000 0.0
    4.350000     0.000000 0.0
    4.400000     0.000000 0.0
    4.450000     0.000000 0.0
    4.500000     0.000000 0.0
    4.550000     0.000000 0.0
    4.600000     0.000000 0.0
    4.650000     0.000000 0.0
    4.700000     0.000000 0.0
    4.750000     0.000000 0.0
    4.800000     0.000000 0.0
    4.850000     0.000000 0.0
    4.900000     0.000000 0.0
    4.950000     0.000000 0.0
    5.000000     0.000000 0.0
    5.050000     0.000000 0.0
    5.100000     0.000000 0.0
    5.150000     0.000000 0.0
    5.200000     0.000000 0.0
    5.250000     0.000000 0.0
    5.300000     0.000000 0.0
    5.350000     0.000000 0.0
    5.400000     0.000000 0.0
    5.450000     0.000000 0.0
    5.500000     0.000000 0.0
    5.550000     0.000000 0.0
    5.600000     0.000000 0.0
    5.650000     0.000000 0.0
    5.700000     0.000000 0.0
    5.750000     0.000000 0.0
    5.800000     0.000000 0.0
    5.850000     0.000000 0.0
    5.900000     0.000000 0.0
    5.950000     0.000000 0.0
    6.000000     0.000000 0.0
    6.050000     0.000000 0.0
    6.100000     0.000000 0.0
    6.150000     0.000000 0.0
    6.200000     0.000000 0.0
    6.250000     0.000000 0.0
    6.300000     0.000000 0.0
    6.350000     0.000000 0.0
    6.400000     0.000000 0.0
    6.450000     0.000000 0.0
    6.500000     0.000000 0.0
    6.550000     0.000000 0.0
    6.600000     0.000000 0.0
    6.650000     0.000000 0.0
    6.700000     0.000000 0.0
    6.750000     0.000000 0.0
    6.800000     0.000000 0.0
    6.850000     0.000000 0.0
    6.900000     0.000000 0.0
    6.950000     0.000000 0.0
    7.000000     0.000000 0.0
    7.050000     0.000000 0.0
    7.100000     0.000000 0.0
    7.150000     0.000000 0.0
    7.200000     0.000000 0.0
    7.250000     0.000000 0.0
    7.300000     0.000000 0.0
    7.350000     0.000000 0.0
    7.400000     0.000000 0.0
    7.450000     0.000000 0.0
    7.500000     0.000000 0.0
    7.550000     0.000000 0.0
    7.600000     0.000000 0.0
    7.650000     0.000000 0.0
    7.700000     0.000000 0.0
    7.750000     0.000000 0.0
    7.800000     0.000000 0.0
    7.850000     0.000000 0.0
    7.900000     0.000000 0.0
    7.950000     0.000000 0.0
    8.000000     0.000000 0.0
    0.000000     0.050000 0.0
    0.050000     0.050000 0.0
    0.100000     0.050000 0.0
    0.150000     0.050000 0.0
    0.200000     0.050000 0.0
    0.250000     0.050000 0.0
    0.300000     0.050000 0.0
    0.350000     0.050000 0.0
    0.400000     0.050000 0.0
    0.450000     0.050000 0.0
    0.500000     0.050000 0.0
    0.550000     0.050000 0.0
    0.600000     0.050000 0.0
    0.650000     0.050000 0.0
    0.700000     0.050000 0.0
    0.750000     0.050000 0.0
    0.800000     0.050000 0.0
    0.850000     0.050000 0.0
    0.900000     0.050000 0.0
    0.950000     0.050000 0.0
    1.000000     0.050000 0.0
    1.050000     0.050000 0.0
    1.100000     0.050000 0.0
    1.150000     0.050000 0.0
    1.200000     0.050000 0.0
    1.250000     0.050000 0.0
    1.300000     0.050000 0.0
    1.350000     0.050000 0.0
    1.400000     0.050000 0.0
    1.450000     0.050000 0.0
    1.500000     0.050000 0.0
    1.550000     0.050000 0.0
    1.600000     0.050000 0.0
    1.650000     0.050000 0.0
    1.700000     0.050000 0.0
    1.750000     0.050000 0.0
    1.800000     0.050000 0.0
    1.850000     0.050000 0.0
    1.900000     0.050000 0.0
    1.950000     0.050000 0.0
    2.000000     0.050000 0.0
    2.050000     0.050000 0.0
    2.100000     0.050000 0.0
    2.150000     0.050000 0.0
    2.200000     0.050000 0.0
    2.250000     0.050000 0.0
    2.300000     0.050000 0.0
    2.350000     0.050000 0.0
    2.400000     0.050000 0.0
    2.450000     0.050000 0.0
    2.500000     0.050000 0.0
    2.550000     0.050000 0.0
    2.600000     0.050000 0.0
    2.650000     0.050000 0.0
    2.700000     0.050000 0.0
    2.750000     0.050000 0.0
    2.800000     0.050000 0.0
    2.850000     0.050000 0.0
    2.900000     0.050000 0.0
    2.950000     0.050000 0.0
    3.000000     0.050000 0.0
    3.050000     0.050000 0.0
    3.100000     0.050000 0.0
    3.150000     0.050000 0.0
    3.200000     0.050000 0.0
    3.250000     0.050000 0.0
    3.300000     0.050000 0.0
    3.350000     0.050000 0.0
    3.400000     0.050000 0.0
    3.450000     0.050000 0.0
    3.500000     0.050000 0.0
    3.550000     0.050000 0.0
    3.600000     0.050000 0.0
    3.650000     0.050000 0.0
    3.700000     0.050000 0.0
    3.750000     0.050000 0.0
    3.800000     0.050000 0.0
    3.850000     0.050000 0.0
    3.900000     0.050000 0.0
    3.950000     0.050000 0.0
    4.000000     0.050000 0.0
    4.050000     0.050000 0.0
    4.100000     0.050000 0.0
    4.150000     0.050000 0.0
    4.200000     0.050000 0.0
    4.250000     0.050000 0.0
    4.300000     0.050000 0.0
    4.350000     0.050000 0.0
    4.400000     0.050000 0.0
    4.450000     0.050000 0.0
    4.500000     0.050000 0.0
    4.550000     0.050000 0.0
    4.600000     0.050000 0.0
    4.650000     0.050000 0.0
    4.700000     0.050000 0.0
    4.750000     0.050000 0.0
    4.800000     0.050000 0.0
    4.850000     0.050000 0.0
    4.900000     0.050000 0.0
    4.950000     0.050000 0.0
    5.000000     0.050000 0.0
    5.050000     0.050000 0.0
    5.100000     0.050000 0.0
    5.150000     0.050000 0.0
    5.200000     0.050000 0.0
    5.250000     0.050000 0.0
    5.300000     0.050000 0.0
    5.350000     0.050000 0.0
    5.400000     0.050000 0.0
    5.450000     0.050000 0.0
    5.500000     0.050000 0.0
    5.550000     0.050000 0.0
    5.600000     0.050000 0.0
    5.650000     0.050000 0.0
    5.700000     0.050000 0.0
    5.750000     0.050000 0.0
    5.800000     0.050000 0.0
    5.850000     0.050000 0.0
    5.900000     0.050000 0.0
    5.950000     0.050000 0.0
    6.000000     0.050000 0.0
    6.050000     0.050000 0.0
    6.100000     0.050000 0.0
    6.150000     0.050000 0.0
    6.200000     0.050000 0.0
    6.250000     0.050000 0.0
    6.300000     0.050000 0.0
    6.350000     0.050000 0.0
    6.400000     0.050000 0.0
    6.450000     0.050000 0.0
    6.500000     0.050000 0.0
    6.550000     0.050000 0.0
    6.600000     0.050000 0.0
    6.650000     0.050000 0.0
    6.700000     0.050000 0.0
    6.750000     0.050000 0.0
    6.800000     0.050000 0.0
    6.850000     0.050000 0.0
    6.900000     0.050000 0.0
    6.950000     0.050000 0.0
    7.000000     0.050000 0.0
    7.050000     0.050000 0.0
    7.100000     0.050000 0.0
    7.150000     0.050000 0.0
    7.200000     0.050000 0.0
    7.250000     0.050000 0.0
    7.300000     0.050000 0.0
    7.350000     0.050000 0.0
    7.400000     0.050000 0.0
    7.450000     0.050000 0.0
    7.500000     0.050000 0.0
    7.550000     0.050000 0.0
    7.600000     0.050000 0.0
    7.650000     0.050000 0.0
    7.700000     0.050000 0.0
    7.750000     0.050000 0.0
    7.800000     0.050000 0.0
    7.850000     0.050000 0.0
    7.900000     0.050000 0.0
    7.950000     0.050000 0.0
    8.000000     0.050000 0.0
    0.000000     0.100000 0.0
    0.050000     0.100000 0.0
    0.100000     0.100000 0.0
    0.150000     0.100000 0.0
    0.200000     0.100000 0.0
    0.250000     0.100000 0.0
    0.300000     0.100000 0.0
[...]
POINT_DATA 13041
SCALARS Thermal_val float
LOOKUP_TABLE default
  0.000000   0.019634   0.039260   0.058871   0.078459   0.098017   0.117537   0.137012   0.156434   0.175796   0.195090   0.214309   0.233445   0.252492   0.271440   0.290285   0.309017   0.327630   0.346117   0.364470   0.382683   0.400749   0.418660   0.436409   0.453991   0.471397   0.488621   0.505657   0.522499   0.539138   0.555570   0.571788   0.587785   0.603556   0.619094   0.634393   0.649448   0.664252   0.678801   0.693087   0.707107   0.720854   0.734322   0.747508   0.760406   0.773010   0.785317   0.797321   0.809017   0.820401   0.831470   0.842217   0.852640   0.862734   0.872496   0.881921   0.891007   0.899748   0.908143   0.916188   0.923880   0.931215   0.938191   0.944806   0.951057   0.956940   0.962455   0.967599   0.972370   0.976766   0.980785   0.984427   0.987688   0.990569   0.993068   0.995185   0.996917   0.998266   0.999229   0.999807   1.000000   0.999807   0.999229   0.998266   0.996917   0.995185   0.993068   0.990569   0.987688   0.984427   0.980785   0.976766   0.972370   0.967599   0.962455   0.956940   0.951056   0.944806   0.938191   0.931215   0.923880   0.916188   0.908143   0.899748   0.891007   0.881921   0.872496   0.862734   0.852640   0.842217   0.831470   0.820401   0.809017   0.797321   0.785317   0.773010   0.760406   0.747508   0.734322   0.720854   0.707107   0.693087   0.678801   0.664252   0.649448   0.634393   0.619094   0.603556   0.587785   0.571788   0.555570   0.539138   0.522499   0.505657   0.488621   0.471397   0.453990   0.436409   0.418660   0.400749   0.382683   0.364470   0.346117   0.327630   0.309017   0.290285   0.271440   0.252492   0.233445   0.214309   0.195090   0.175796   0.156435   0.137012   0.117537   0.098017   0.078459   0.058871   0.039260   0.019634   0.000000 
  0.000000   0.017204   0.034402   0.051586   0.068751   0.085888   0.102993   0.120058   0.137077   0.154043   0.170950   0.187790   0.204559   0.221248   0.237852   0.254365   0.270779   0.287089   0.303288   0.319371   0.335330   0.351160   0.366855   0.382408   0.397814   0.413066   0.428159   0.443087   0.457844   0.472425   0.486824   0.501035   0.515052   0.528872   0.542487   0.555893   0.569085   0.582058   0.594806   0.607324   0.619609   0.631655   0.643457   0.655011   0.666313   0.677358   0.688142   0.698660   0.708909   0.718885   0.728583   0.738001   0.747134   0.755979   0.764533   0.772792   0.780753   0.788413   0.795769   0.802819   0.809558   0.815986   0.822099   0.827895   0.833372   0.838528   0.843361   0.847868   0.852049   0.855901   0.859423   0.862613   0.865471   0.867996   0.870186   0.872040   0.873558   0.874740   0.875584   0.876091   0.876260   0.876091   0.875584   0.874740   0.873558   0.872040   0.870186   0.867996   0.865471   0.862613   0.859423   0.855901   0.852049   0.847868   0.843361   0.838528   0.833372   0.827895   0.822099   0.815986   0.809558   0.802818   0.795769   0.788413   0.780753   0.772792   0.764533   0.755979   0.747134   0.738001   0.728583   0.718885   0.708909   0.698660   0.688142   0.677358   0.666313   0.655011   0.643457   0.631655   0.619609   0.607324   0.594806   0.582058   0.569085   0.555893   0.542487   0.528872   0.515052   0.501035   0.486824   0.472425   0.457844   0.443087   0.428159   0.413066   0.397814   0.382408   0.366855   0.351160   0.335330   0.319371   0.303288   0.287089   0.270779   0.254365   0.237852   0.221248   0.204559   0.187790   0.170950   0.154043   0.137077   0.120058   0.102993   0.085888   0.068751   0.051586   0.034402   0.017204   0.000000 
  0.000000   0.014838   0.029670   0.044490   0.059294   0.074074   0.088826   0.103544   0.118222   0.132854   0.147435   0.161959   0.176421   0.190814   0.205135   0.219376   0.233532   0.247599   0.261570   0.275440   0.289204   0.302856   0.316392   0.329806   0.343093   0.356247   0.369264   0.382139   0.394866   0.407441   0.419859   0.432115   0.444205   0.456123   0.467866   0.479428   0.490805   0.501993   0.512987   0.523784   0.534379   0.544768   0.554947   0.564912   0.574659   0.584184   0.593485   0.602556   0.611395   0.619999   0.628363   0.636486   0.644362   0.651991   0.659368   0.666491   0.673357   0.679963   0.686308   0.692387   0.698200   0.703743   0.709016   0.714015   0.718738   0.723185   0.727353   0.731240   0.734845   0.738168   0.741205   0.743957   0.746422   0.748599   0.750488   0.752087   0.753397   0.754415   0.755144   0.755580   0.755726   0.755580   0.755144   0.754416   0.753397   0.752087   0.750488   0.748599   0.746422   0.743957   0.741205   0.738168   0.734845   0.731240   0.727353   0.723185   0.718738   0.714015   0.709016   0.703744   0.698200   0.692387   0.686308   0.679963   0.673357   0.666491   0.659368   0.651991   0.644362   0.636486   0.628363   0.619999   0.611395   0.602556   0.593485   0.584184   0.574659   0.564912   0.554947   0.544768   0.534379   0.523784   0.512987   0.501993   0.490805   0.479428   0.467866   0.456123   0.444205   0.432115   0.419859   0.407441   0.394866   0.382139   0.369264   0.356247   0.343093   0.329806   0.316392   0.302856   0.289204   0.275440   0.261570   0.247599   0.233532   0.219376   0.205135   0.190814   0.176421   0.161959   0.147435   0.132854   0.118222   0.103544   0.088826   0.074074   0.059294   0.044490   0.029670   0.014838   0.000000 
  0.000000   0.012586   0.025166   0.037737   0.050294   0.062831   0.075344   0.087828   0.100278   0.112689   0.125057   0.137377   0.149644   0.161853   0.173999   0.186079   0.198087   0.210018   0.221869   0.233634   0.245309   0.256889   0.268370   0.279748   0.291018   0.302176   0.313217   0.324138   0.334933   0.345600   0.356133   0.366529   0.376783   0.386893   0.396853   0.406660   0.416311   0.425801   0.435126   0.444284   0.453271   0.462083   0.470717   0.479169   0.487437   0.495517   0.503405   0.511100   0.518598   0.525895   0.532990   0.539880   0.546561   0.553032   0.559289   0.565331   0.571155   0.576759   0.582140   0.587297   0.592227   0.596929   0.601401   0.605642   0.609648   0.613420   0.616955   0.620252   0.623311   0.626128   0.628705   0.631039   0.633130   0.634977   0.636579   0.637935   0.639046   0.639910   0.640528   0.640899   0.641022   0.640899   0.640528   0.639910   0.639046   0.637935   0.636579   0.634977   0.633130   0.631039   0.628705   0.626128   0.623311   0.620252   0.616955   0.613420   0.609648   0.605642   0.601401   0.596929   0.592227   0.587297   0.582140   0.576759   0.571155   0.565331   0.559289   0.553032   0.546561   0.539880   0.532990   0.525895   0.518598   0.511100   0.503405   0.495517   0.487437   0.479169   0.470717   0.462083   0.453271   0.444284   0.435126   0.425801   0.416311   0.406660   0.396853   0.386893   0.376783   0.366529   0.356133   0.345600   0.334933   0.324138   0.313217   0.302176   0.291018   0.279748   0.268370   0.256889   0.245309   0.233634   0.221869   0.210018   0.198087   0.186079   0.173999   0.161853   0.149644   0.137377   0.125057   0.112689   0.100278   0.087828   0.075344   0.062831   0.050294   0.037737   0.025166   0.012586   0.000000 
  0.000000   0.010492   0.020980   0.031460   0.041928   0.052380   0.062811   0.073219   0.083598   0.093945   0.104255   0.114526   0.124752   0.134930   0.145056   0.155127   0.165137   0.175084   0.184963   0.194771   0.204504   0.214158   0.223730   0.233215   0.242610   0.251912   0.261117   0.270221   0.279221   0.288113   0.296894   0.305560   0.314109   0.322537   0.330841   0.339016   0.347062   0.354973   0.362748   0.370382   0.377874   0.385220   0.392418   0.399465   0.406357   0.413093   0.419669   0.426084   0.432334   0.438418   0.444333   0.450076   0.455646   0.461041   0.466257   0.471294   0.476149   0.480821   0.485307   0.489606   0.493716   0.497636   0.501365   0.504899   0.508240   0.511384   0.514331   0.517080   0.519629   0.521979   0.524127   0.526072   0.527816   0.529355   0.530691   0.531821   0.532747   0.533468   0.533983   0.534292   0.534395   0.534292   0.533983   0.533468   0.532747   0.531821   0.530691   0.529355   0.527816   0.526072   0.524127   0.521979   0.519629   0.517080   0.514331   0.511384   0.508240   0.504899   0.501365   0.497636   0.493716   0.489606   0.485307   0.480821   0.476149   0.471294   0.466257   0.461041   0.455646   0.450076   0.444333   0.438418   0.432334   0.426084   0.419669   0.413093   0.406357   0.399465   0.392418   0.385220   0.377874   0.370382   0.362748   0.354973   0.347062   0.339016   0.330841   0.322537   0.314109   0.305560   0.296894   0.288113   0.279221   0.270221   0.261117   0.251912   0.242610   0.233215   0.223730   0.214158   0.204504   0.194771   0.184963   0.175084   0.165137   0.155127   0.145056   0.134930   0.124752   0.114526   0.104255   0.093945   0.083598   0.073219   0.062811   0.052380   0.041928   0.031460   0.020980   0.010492   0.000000 
  0.000000   0.008591   0.017179   0.025761   0.034332   0.042891   0.051432   0.059954   0.068453   0.076925   0.085368   0.093778   0.102152   0.110486   0.118778   0.127024   0.135220   0.143365   0.151455   0.159486   0.167456   0.175361   0.183198   0.190965   0.198658   0.206275   0.213812   0.221267   0.228636   0.235918   0.243108   0.250205   0.257205   0.264106   0.270905   0.277600   0.284187   0.290665   0.297031   0.303283   0.309418   0.315433   0.321327   0.327097   0.332740   0.338256   0.343641   0.348894   0.354012   0.358993   0.363837   0.368540   0.373101   0.377518   0.381789   0.385913   0.389889   0.393714   0.397388   0.400908   0.404274   0.407484   0.410536   0.413431   0.416166   0.418741   0.421154   0.423405   0.425492   0.427416   0.429175   0.430768   0.432195   0.433456   0.434550   0.435476   0.436234   0.436824   0.437245   0.437498   0.437583   0.437498   0.437245   0.436824   0.436234   0.435476   0.434550   0.433456   0.432195   0.430768   0.429175   0.427416   0.425492   0.423405   0.421154   0.418741   0.416166   0.413431   0.410536   0.407484   0.404274   0.400908   0.397388   0.393714   0.389889   0.385913   0.381789   0.377518   0.373101   0.368540   0.363837   0.358993   0.354012   0.348894   0.343641   0.338256   0.332740   0.327097   0.321327   0.315433   0.309418   0.303283   0.297031   0.290665   0.284187   0.277600   0.270905   0.264106   0.257205   0.250205   0.243108   0.235918   0.228636   0.221267   0.213812   0.206275   0.198658   0.190965   0.183198   0.175361   0.167456   0.159486   0.151455   0.143365   0.135220   0.127024   0.118778   0.110486   0.102152   0.093778   0.085368   0.076925   0.068453   0.059954   0.051432   0.042891   0.034332   0.025761   0.017179   0.008591   0.000000 
  0.000000   0.006906   0.013809   0.020707   0.027597   0.034476   0.041342   0.048192   0.055024   0.061834   0.068620   0.075380   0.082111   0.088810   0.095475   0.102104   0.108692   0.115239   0.121742   0.128197   0.134604   0.140958   0.147258   0.153501   0.159685   0.165807   0.171866   0.177858   0.183782   0.189635   0.195414   0.201119   0.206745   0.212293   0.217758   0.223139   0.228434   0.233642   0.238759   0.243784   0.248715   0.253550   0.258288   0.262926   0.267462   0.271896   0.276224   0.280447   0.284561   0.288565   0.292458   0.296238   0.299904   0.303455   0.306888   0.310204   0.313399   0.316474   0.319427   0.322257   0.324962   0.327542   0.329996   0.332323   0.334521   0.336591   0.338530   0.340340   0.342018   0.343564   0.344978   0.346259   0.347406   0.348419   0.349298   0.350043   0.350652   0.351126   0.351465   0.351668   0.351736   0.351668   0.351465   0.351126   0.350652   0.350043   0.349298   0.348419   0.347406   0.346259   0.344978   0.343564   0.342018   0.340340   0.338530   0.336591   0.334521   0.332323   0.329996   0.327542   0.324962   0.322257   0.319427   0.316474   0.313399   0.310204   0.306888   0.303455   0.299904   0.296238   0.292458   0.288565   0.284561   0.280447   0.276224   0.271896   0.267462   0.262926   0.258288   0.253550   0.248715   0.243784   0.238759   0.233642   0.228434   0.223139   0.217758   0.212293   0.206745   0.201119   0.195414   0.189635   0.183782   0.177858   0.171866   0.165807   0.159685   0.153501   0.147258   0.140958   0.134604   0.128197   0.121742   0.115239   0.108692   0.102104   0.095475   0.088810   0.082111   0.075380   0.068620   0.061834   0.055024   0.048192   0.041342   0.034476   0.027597   0.020707   0.013809   0.006906   0.000000 
  0.000000   0.005446   0.010891   0.016331   0.021764   0.027190   0.032605   0.038007   0.043395   0.048766   0.054118   0.059449   0.064757   0.070041   0.075297   0.080525   0.085721   0.090884   0.096012   0.101104   0.106156   0.111167   0.116136   0.121059   0.125936   0.130765   0.135543   0.140269   0.144940   0.149556   0.154114   0.158613   0.163051   0.167425   0.171736   0.175980   0.180156   0.184263   0.188298   0.192261   0.196150   0.199964   0.203700   0.207358   0.210935   0.214432   0.217846   0.221175   0.224420   0.227578   0.230648   0.233630   0.236521   0.239321   0.242029   0.244644   0.247164   0.249589   0.251917   0.254149   0.256283   0.258318   0.260253   0.262088   0.263822   0.265454   0.266984   0.268410   0.269734   0.270953   0.272068   0.273078   0.273983   0.274782   0.275476   0.276063   0.276543   0.276917   0.277185   0.277345   0.277398   0.277345   0.277185   0.276917   0.276543   0.276063   0.275476   0.274782   0.273983   0.273078   0.272068   0.270953   0.269734   0.268410   0.266984   0.265454   0.263822   0.262088   0.260253   0.258318   0.256283   0.254149   0.251917   0.249589   0.247164   0.244644   0.242029   0.239321   0.236521   0.233630   0.230648   0.227578   0.224420   0.221175   0.217846   0.214432   0.210935   0.207358   0.203700   0.199964   0.196150   0.192261   0.188298   0.184263   0.180156   0.175980   0.171736   0.167425   0.163051   0.158613   0.154114   0.149556   0.144940   0.140269   0.135543   0.130765   0.125936   0.121059   0.116136   0.111167   0.106156   0.101104   0.096012   0.090884   0.085721   0.080525   0.075297   0.070041   0.064757   0.059449   0.054118   0.048766   0.043395   0.038007   0.032605   0.027190   0.021764   0.016331   0.010891   0.005446   0.000000 
  0.000000   0.004212   0.008423   0.012630   0.016833   0.021029   0.025217   0.029395   0.033562   0.037715   0.041855   0.045978   0.050084   0.054170   0.058235   0.062278   0.066297   0.070290   0.074256   0.078194   0.082101   0.085977   0.089820   0.093628   0.097399   0.101134   0.104829   0.108484   0.112097   0.115667   0.119192   0.122672   0.126104   0.129487   0.132821   0.136103   0.139333   0.142509   0.145630   0.148695   0.151703   0.154652   0.157542   0.160371   0.163138   0.165842   0.168482   0.171058   0.173567   0.176009   0.178384   0.180690   0.182926   0.185092   0.187186   0.189208   0.191157   0.193033   0.194834   0.196560   0.198210   0.199783   0.201280   0.202699   0.204040   0.205303   0.206486   0.207589   0.208613   0.209556   0.210418   0.211199   0.211899   0.212517   0.213054   0.213508   0.213879   0.214169   0.214375   0.214499   0.214541   0.214499   0.214375   0.214169   0.213879   0.213508   0.213054   0.212517   0.211899   0.211199   0.210418   0.209556   0.208613   0.207589   0.206486   0.205303   0.204040   0.202699   0.201280   0.199783   0.198210   0.196560   0.194834   0.193033   0.191157   0.189208   0.187186   0.185092   0.182926   0.180690   0.178384   0.176009   0.173567   0.171058   0.168482   0.165842   0.163138   0.160371   0.157542   0.154652   0.151703   0.148695   0.145630   0.142509   0.139333   0.136103   0.132821   0.129487   0.126104   0.122672   0.119192   0.115667   0.112097   0.108484   0.104829   0.101134   0.097399   0.093628   0.089820   0.085977   0.082101   0.078194   0.074256   0.070290   0.066297   0.062278   0.058235   0.054170   0.050084   0.045978   0.041855   0.037715   0.033562   0.029395   0.025217   0.021029   0.016833   0.012630   0.008423   0.004212   0.000000 
  0.000000   0.003193   0.006385   0.009575   0.012761   0.015942   0.019117   0.022284   0.025443   0.028592   0.031730   0.034856   0.037969   0.041066   0.044148   0.047213   0.050260   0.053287   0.056294   0.059279   0.062241   0.065180   0.068093   0.070980   0.073839   0.076670   0.079472   0.082242   0.084981   0.087688   0.090360   0.092998   0.095600   0.098165   0.100692   0.103181   0.105629   0.108037   0.110403   0.112727   0.115007   0.117243   0.119433   0.121578   0.123676   0.125726   0.127727   0.129680   0.131582   0.133434   0.135234   0.136982   0.138677   0.140319   0.141907   0.143440   0.144917   0.146339   0.147704   0.149013   0.150264   0.151457   0.152592   0.153667   0.154684   0.155641   0.156538   0.157375   0.158150   0.158865   0.159519   0.160111   0.160642   0.161111   0.161517   0.161861   0.162143   0.162362   0.162519   0.162613   0.162644   0.162613   0.162519   0.162362   0.162143   0.161861   0.161517   0.161111   0.160642   0.160111   0.159519   0.158866   0.158151   0.157375   0.156538   0.155641   0.154684   0.153667   0.152592   0.151457   0.150264   0.149013   0.147704   0.146339   0.144917   0.143440   0.141907   0.140319   0.138677   0.136982   0.135234   0.133434   0.131582   0.129680   0.127727   0.125726   0.123676   0.121578   0.119433   0.117243   0.115007   0.112727   0.110403   0.108037   0.105629   0.103181   0.100692   0.098165   0.095600   0.092998   0.090360   0.087688   0.084981   0.082242   0.079472   0.076670   0.073839   0.070980   0.068093   0.065180   0.062241   0.059279   0.056294   0.053287   0.050260   0.047213   0.044148   0.041066   0.037969   0.034856   0.031730   0.028592   0.025443   0.022284   0.019117   0.015942   0.012761   0.009575   0.006385   0.003193   0.000000 
  0.000000   0.002372   0.004743   0.007112   0.009479   0.011842   0.014200   0.016553   0.018899   0.021238   0.023569   0.025891   0.028203   0.030504   0.032793   0.035070   0.037333   0.039582   0.041815   0.044033   0.046233   0.048415   0.050579   0.052724   0.054848   0.056951   0.059032   0.061090   0.063124   0.065135   0.067120   0.069079   0.071012   0.072917   0.074794   0.076643   0.078461   0.080250   0.082008   0.083734   0.085427   0.087088   0.088715   0.090308   0.091867   0.093389   0.094876   0.096326   0.097739   0.099115   0.100452   0.101750   0.103010   0.104229   0.105408   0.106547   0.107645   0.108701   0.109715   0.110687   0.111616   0.112502   0.113345   0.114144   0.114900   0.115610   0.116277   0.116898   0.117474   0.118006   0.118491   0.118931   0.119325   0.119673   0.119975   0.120231   0.120440   0.120603   0.120719   0.120789   0.120813   0.120789   0.120719   0.120603   0.120440   0.120231   0.119975   0.119673   0.119325   0.118931   0.118491   0.118006   0.117475   0.116898   0.116277   0.115610   0.114900   0.114144   0.113345   0.112502   0.111616   0.110687   0.109715   0.108701   0.107645   0.106547   0.105408   0.104229   0.103010   0.101750   0.100452   0.099115   0.097739   0.096326   0.094876   0.093389   0.091867   0.090308   0.088715   0.087088   0.085427   0.083734   0.082008   0.080250   0.078461   0.076643   0.074794   0.072917   0.071012   0.069079   0.067120   0.065135   0.063124   0.061090   0.059032   0.056951   0.054848   0.052724   0.050579   0.048415   0.046233   0.044033   0.041815   0.039582   0.037333   0.035070   0.032793   0.030504   0.028203   0.025891   0.023569   0.021238   0.018899   0.016553   0.014200   0.011842   0.009479   0.007112   0.004743   0.002372   0.000000 